+ 0.5 0 2 tcp 40 ------- 1 0.0 3.0 0 0
- 0.5 0 2 tcp 40 ------- 1 0.0 3.0 0 0
r 0.520064 0 2 tcp 40 ------- 1 0.0 3.0 0 0
+ 0.520064 2 3 tcp 40 ------- 1 0.0 3.0 0 0
- 0.520064 2 3 tcp 40 ------- 1 0.0 3.0 0 0
r 0.540128 2 3 tcp 40 ------- 1 0.0 3.0 0 0
+ 0.540128 3 2 ack 40 ------- 1 3.0 0.0 0 1
- 0.540128 3 2 ack 40 ------- 1 3.0 0.0 0 1
r 0.560192 3 2 ack 40 ------- 1 3.0 0.0 0 1
+ 0.560192 2 0 ack 40 ------- 1 3.0 0.0 0 1
- 0.560192 2 0 ack 40 ------- 1 3.0 0.0 0 1
r 0.580256 2 0 ack 40 ------- 1 3.0 0.0 0 1
+ 0.580256 0 2 tcp 1040 ------- 1 0.0 3.0 1 2
- 0.580256 0 2 tcp 1040 ------- 1 0.0 3.0 1 2
+ 0.580256 0 2 tcp 1040 ------- 1 0.0 3.0 2 3
- 0.58192 0 2 tcp 1040 ------- 1 0.0 3.0 2 3
r 0.60192 0 2 tcp 1040 ------- 1 0.0 3.0 1 2
+ 0.60192 2 3 tcp 1040 ------- 1 0.0 3.0 1 2
- 0.60192 2 3 tcp 1040 ------- 1 0.0 3.0 1 2
r 0.603584 0 2 tcp 1040 ------- 1 0.0 3.0 2 3
+ 0.603584 2 3 tcp 1040 ------- 1 0.0 3.0 2 3
- 0.603584 2 3 tcp 1040 ------- 1 0.0 3.0 2 3
r 0.623584 2 3 tcp 1040 ------- 1 0.0 3.0 1 2
+ 0.623584 3 2 ack 40 ------- 1 3.0 0.0 1 4
- 0.623584 3 2 ack 40 ------- 1 3.0 0.0 1 4
r 0.625248 2 3 tcp 1040 ------- 1 0.0 3.0 2 3
+ 0.625248 3 2 ack 40 ------- 1 3.0 0.0 2 5
- 0.625248 3 2 ack 40 ------- 1 3.0 0.0 2 5
r 0.643648 3 2 ack 40 ------- 1 3.0 0.0 1 4
+ 0.643648 2 0 ack 40 ------- 1 3.0 0.0 1 4
- 0.643648 2 0 ack 40 ------- 1 3.0 0.0 1 4
r 0.645312 3 2 ack 40 ------- 1 3.0 0.0 2 5
+ 0.645312 2 0 ack 40 ------- 1 3.0 0.0 2 5
- 0.645312 2 0 ack 40 ------- 1 3.0 0.0 2 5
r 0.663712 2 0 ack 40 ------- 1 3.0 0.0 1 4
+ 0.663712 0 2 tcp 1040 ------- 1 0.0 3.0 3 6
- 0.663712 0 2 tcp 1040 ------- 1 0.0 3.0 3 6
+ 0.663712 0 2 tcp 1040 ------- 1 0.0 3.0 4 7
r 0.665376 2 0 ack 40 ------- 1 3.0 0.0 2 5
+ 0.665376 0 2 tcp 1040 ------- 1 0.0 3.0 5 8
+ 0.665376 0 2 tcp 1040 ------- 1 0.0 3.0 6 9
- 0.665376 0 2 tcp 1040 ------- 1 0.0 3.0 4 7
- 0.66704 0 2 tcp 1040 ------- 1 0.0 3.0 5 8
- 0.668704 0 2 tcp 1040 ------- 1 0.0 3.0 6 9
r 0.685376 0 2 tcp 1040 ------- 1 0.0 3.0 3 6
+ 0.685376 2 3 tcp 1040 ------- 1 0.0 3.0 3 6
- 0.685376 2 3 tcp 1040 ------- 1 0.0 3.0 3 6
r 0.68704 0 2 tcp 1040 ------- 1 0.0 3.0 4 7
+ 0.68704 2 3 tcp 1040 ------- 1 0.0 3.0 4 7
- 0.68704 2 3 tcp 1040 ------- 1 0.0 3.0 4 7
r 0.688704 0 2 tcp 1040 ------- 1 0.0 3.0 5 8
+ 0.688704 2 3 tcp 1040 ------- 1 0.0 3.0 5 8
- 0.688704 2 3 tcp 1040 ------- 1 0.0 3.0 5 8
r 0.690368 0 2 tcp 1040 ------- 1 0.0 3.0 6 9
+ 0.690368 2 3 tcp 1040 ------- 1 0.0 3.0 6 9
- 0.690368 2 3 tcp 1040 ------- 1 0.0 3.0 6 9
r 0.70704 2 3 tcp 1040 ------- 1 0.0 3.0 3 6
+ 0.70704 3 2 ack 40 ------- 1 3.0 0.0 3 10
- 0.70704 3 2 ack 40 ------- 1 3.0 0.0 3 10
r 0.708704 2 3 tcp 1040 ------- 1 0.0 3.0 4 7
+ 0.708704 3 2 ack 40 ------- 1 3.0 0.0 4 11
- 0.708704 3 2 ack 40 ------- 1 3.0 0.0 4 11
r 0.710368 2 3 tcp 1040 ------- 1 0.0 3.0 5 8
+ 0.710368 3 2 ack 40 ------- 1 3.0 0.0 5 12
- 0.710368 3 2 ack 40 ------- 1 3.0 0.0 5 12
r 0.712032 2 3 tcp 1040 ------- 1 0.0 3.0 6 9
+ 0.712032 3 2 ack 40 ------- 1 3.0 0.0 6 13
- 0.712032 3 2 ack 40 ------- 1 3.0 0.0 6 13
r 0.727104 3 2 ack 40 ------- 1 3.0 0.0 3 10
+ 0.727104 2 0 ack 40 ------- 1 3.0 0.0 3 10
- 0.727104 2 0 ack 40 ------- 1 3.0 0.0 3 10
r 0.728768 3 2 ack 40 ------- 1 3.0 0.0 4 11
+ 0.728768 2 0 ack 40 ------- 1 3.0 0.0 4 11
- 0.728768 2 0 ack 40 ------- 1 3.0 0.0 4 11
r 0.730432 3 2 ack 40 ------- 1 3.0 0.0 5 12
+ 0.730432 2 0 ack 40 ------- 1 3.0 0.0 5 12
- 0.730432 2 0 ack 40 ------- 1 3.0 0.0 5 12
r 0.732096 3 2 ack 40 ------- 1 3.0 0.0 6 13
+ 0.732096 2 0 ack 40 ------- 1 3.0 0.0 6 13
- 0.732096 2 0 ack 40 ------- 1 3.0 0.0 6 13
r 0.747168 2 0 ack 40 ------- 1 3.0 0.0 3 10
+ 0.747168 0 2 tcp 1040 ------- 1 0.0 3.0 7 14
- 0.747168 0 2 tcp 1040 ------- 1 0.0 3.0 7 14
+ 0.747168 0 2 tcp 1040 ------- 1 0.0 3.0 8 15
r 0.748832 2 0 ack 40 ------- 1 3.0 0.0 4 11
+ 0.748832 0 2 tcp 1040 ------- 1 0.0 3.0 9 16
+ 0.748832 0 2 tcp 1040 ------- 1 0.0 3.0 10 17
- 0.748832 0 2 tcp 1040 ------- 1 0.0 3.0 8 15
r 0.750496 2 0 ack 40 ------- 1 3.0 0.0 5 12
+ 0.750496 0 2 tcp 1040 ------- 1 0.0 3.0 11 18
+ 0.750496 0 2 tcp 1040 ------- 1 0.0 3.0 12 19
- 0.750496 0 2 tcp 1040 ------- 1 0.0 3.0 9 16
r 0.75216 2 0 ack 40 ------- 1 3.0 0.0 6 13
+ 0.75216 0 2 tcp 1040 ------- 1 0.0 3.0 13 20
+ 0.75216 0 2 tcp 1040 ------- 1 0.0 3.0 14 21
- 0.75216 0 2 tcp 1040 ------- 1 0.0 3.0 10 17
- 0.753824 0 2 tcp 1040 ------- 1 0.0 3.0 11 18
- 0.755488 0 2 tcp 1040 ------- 1 0.0 3.0 12 19
- 0.757152 0 2 tcp 1040 ------- 1 0.0 3.0 13 20
- 0.758816 0 2 tcp 1040 ------- 1 0.0 3.0 14 21
r 0.768832 0 2 tcp 1040 ------- 1 0.0 3.0 7 14
+ 0.768832 2 3 tcp 1040 ------- 1 0.0 3.0 7 14
- 0.768832 2 3 tcp 1040 ------- 1 0.0 3.0 7 14
r 0.770496 0 2 tcp 1040 ------- 1 0.0 3.0 8 15
+ 0.770496 2 3 tcp 1040 ------- 1 0.0 3.0 8 15
- 0.770496 2 3 tcp 1040 ------- 1 0.0 3.0 8 15
r 0.77216 0 2 tcp 1040 ------- 1 0.0 3.0 9 16
+ 0.77216 2 3 tcp 1040 ------- 1 0.0 3.0 9 16
- 0.77216 2 3 tcp 1040 ------- 1 0.0 3.0 9 16
r 0.773824 0 2 tcp 1040 ------- 1 0.0 3.0 10 17
+ 0.773824 2 3 tcp 1040 ------- 1 0.0 3.0 10 17
- 0.773824 2 3 tcp 1040 ------- 1 0.0 3.0 10 17
r 0.775488 0 2 tcp 1040 ------- 1 0.0 3.0 11 18
+ 0.775488 2 3 tcp 1040 ------- 1 0.0 3.0 11 18
- 0.775488 2 3 tcp 1040 ------- 1 0.0 3.0 11 18
r 0.777152 0 2 tcp 1040 ------- 1 0.0 3.0 12 19
+ 0.777152 2 3 tcp 1040 ------- 1 0.0 3.0 12 19
- 0.777152 2 3 tcp 1040 ------- 1 0.0 3.0 12 19
r 0.778816 0 2 tcp 1040 ------- 1 0.0 3.0 13 20
+ 0.778816 2 3 tcp 1040 ------- 1 0.0 3.0 13 20
- 0.778816 2 3 tcp 1040 ------- 1 0.0 3.0 13 20
r 0.78048 0 2 tcp 1040 ------- 1 0.0 3.0 14 21
+ 0.78048 2 3 tcp 1040 ------- 1 0.0 3.0 14 21
- 0.78048 2 3 tcp 1040 ------- 1 0.0 3.0 14 21
r 0.790496 2 3 tcp 1040 ------- 1 0.0 3.0 7 14
+ 0.790496 3 2 ack 40 ------- 1 3.0 0.0 7 22
- 0.790496 3 2 ack 40 ------- 1 3.0 0.0 7 22
r 0.79216 2 3 tcp 1040 ------- 1 0.0 3.0 8 15
+ 0.79216 3 2 ack 40 ------- 1 3.0 0.0 8 23
- 0.79216 3 2 ack 40 ------- 1 3.0 0.0 8 23
r 0.793824 2 3 tcp 1040 ------- 1 0.0 3.0 9 16
+ 0.793824 3 2 ack 40 ------- 1 3.0 0.0 9 24
- 0.793824 3 2 ack 40 ------- 1 3.0 0.0 9 24
r 0.795488 2 3 tcp 1040 ------- 1 0.0 3.0 10 17
+ 0.795488 3 2 ack 40 ------- 1 3.0 0.0 10 25
- 0.795488 3 2 ack 40 ------- 1 3.0 0.0 10 25
r 0.797152 2 3 tcp 1040 ------- 1 0.0 3.0 11 18
+ 0.797152 3 2 ack 40 ------- 1 3.0 0.0 11 26
- 0.797152 3 2 ack 40 ------- 1 3.0 0.0 11 26
r 0.798816 2 3 tcp 1040 ------- 1 0.0 3.0 12 19
+ 0.798816 3 2 ack 40 ------- 1 3.0 0.0 12 27
- 0.798816 3 2 ack 40 ------- 1 3.0 0.0 12 27
r 0.80048 2 3 tcp 1040 ------- 1 0.0 3.0 13 20
+ 0.80048 3 2 ack 40 ------- 1 3.0 0.0 13 28
- 0.80048 3 2 ack 40 ------- 1 3.0 0.0 13 28
r 0.802144 2 3 tcp 1040 ------- 1 0.0 3.0 14 21
+ 0.802144 3 2 ack 40 ------- 1 3.0 0.0 14 29
- 0.802144 3 2 ack 40 ------- 1 3.0 0.0 14 29
r 0.81056 3 2 ack 40 ------- 1 3.0 0.0 7 22
+ 0.81056 2 0 ack 40 ------- 1 3.0 0.0 7 22
- 0.81056 2 0 ack 40 ------- 1 3.0 0.0 7 22
r 0.812224 3 2 ack 40 ------- 1 3.0 0.0 8 23
+ 0.812224 2 0 ack 40 ------- 1 3.0 0.0 8 23
- 0.812224 2 0 ack 40 ------- 1 3.0 0.0 8 23
r 0.813888 3 2 ack 40 ------- 1 3.0 0.0 9 24
+ 0.813888 2 0 ack 40 ------- 1 3.0 0.0 9 24
- 0.813888 2 0 ack 40 ------- 1 3.0 0.0 9 24
r 0.815552 3 2 ack 40 ------- 1 3.0 0.0 10 25
+ 0.815552 2 0 ack 40 ------- 1 3.0 0.0 10 25
- 0.815552 2 0 ack 40 ------- 1 3.0 0.0 10 25
r 0.817216 3 2 ack 40 ------- 1 3.0 0.0 11 26
+ 0.817216 2 0 ack 40 ------- 1 3.0 0.0 11 26
- 0.817216 2 0 ack 40 ------- 1 3.0 0.0 11 26
r 0.81888 3 2 ack 40 ------- 1 3.0 0.0 12 27
+ 0.81888 2 0 ack 40 ------- 1 3.0 0.0 12 27
- 0.81888 2 0 ack 40 ------- 1 3.0 0.0 12 27
r 0.820544 3 2 ack 40 ------- 1 3.0 0.0 13 28
+ 0.820544 2 0 ack 40 ------- 1 3.0 0.0 13 28
- 0.820544 2 0 ack 40 ------- 1 3.0 0.0 13 28
r 0.822208 3 2 ack 40 ------- 1 3.0 0.0 14 29
+ 0.822208 2 0 ack 40 ------- 1 3.0 0.0 14 29
- 0.822208 2 0 ack 40 ------- 1 3.0 0.0 14 29
r 0.830624 2 0 ack 40 ------- 1 3.0 0.0 7 22
+ 0.830624 0 2 tcp 1040 ------- 1 0.0 3.0 15 30
- 0.830624 0 2 tcp 1040 ------- 1 0.0 3.0 15 30
+ 0.830624 0 2 tcp 1040 ------- 1 0.0 3.0 16 31
r 0.832288 2 0 ack 40 ------- 1 3.0 0.0 8 23
+ 0.832288 0 2 tcp 1040 ------- 1 0.0 3.0 17 32
+ 0.832288 0 2 tcp 1040 ------- 1 0.0 3.0 18 33
- 0.832288 0 2 tcp 1040 ------- 1 0.0 3.0 16 31
r 0.833952 2 0 ack 40 ------- 1 3.0 0.0 9 24
+ 0.833952 0 2 tcp 1040 ------- 1 0.0 3.0 19 34
+ 0.833952 0 2 tcp 1040 ------- 1 0.0 3.0 20 35
- 0.833952 0 2 tcp 1040 ------- 1 0.0 3.0 17 32
r 0.835616 2 0 ack 40 ------- 1 3.0 0.0 10 25
+ 0.835616 0 2 tcp 1040 ------- 1 0.0 3.0 21 36
+ 0.835616 0 2 tcp 1040 ------- 1 0.0 3.0 22 37
- 0.835616 0 2 tcp 1040 ------- 1 0.0 3.0 18 33
r 0.83728 2 0 ack 40 ------- 1 3.0 0.0 11 26
+ 0.83728 0 2 tcp 1040 ------- 1 0.0 3.0 23 38
+ 0.83728 0 2 tcp 1040 ------- 1 0.0 3.0 24 39
- 0.83728 0 2 tcp 1040 ------- 1 0.0 3.0 19 34
r 0.838944 2 0 ack 40 ------- 1 3.0 0.0 12 27
+ 0.838944 0 2 tcp 1040 ------- 1 0.0 3.0 25 40
+ 0.838944 0 2 tcp 1040 ------- 1 0.0 3.0 26 41
- 0.838944 0 2 tcp 1040 ------- 1 0.0 3.0 20 35
r 0.840608 2 0 ack 40 ------- 1 3.0 0.0 13 28
+ 0.840608 0 2 tcp 1040 ------- 1 0.0 3.0 27 42
+ 0.840608 0 2 tcp 1040 ------- 1 0.0 3.0 28 43
- 0.840608 0 2 tcp 1040 ------- 1 0.0 3.0 21 36
r 0.842272 2 0 ack 40 ------- 1 3.0 0.0 14 29
+ 0.842272 0 2 tcp 1040 ------- 1 0.0 3.0 29 44
+ 0.842272 0 2 tcp 1040 ------- 1 0.0 3.0 30 45
- 0.842272 0 2 tcp 1040 ------- 1 0.0 3.0 22 37
- 0.843936 0 2 tcp 1040 ------- 1 0.0 3.0 23 38
- 0.8456 0 2 tcp 1040 ------- 1 0.0 3.0 24 39
- 0.847264 0 2 tcp 1040 ------- 1 0.0 3.0 25 40
- 0.848928 0 2 tcp 1040 ------- 1 0.0 3.0 26 41
- 0.850592 0 2 tcp 1040 ------- 1 0.0 3.0 27 42
- 0.852256 0 2 tcp 1040 ------- 1 0.0 3.0 28 43
r 0.852288 0 2 tcp 1040 ------- 1 0.0 3.0 15 30
+ 0.852288 2 3 tcp 1040 ------- 1 0.0 3.0 15 30
- 0.852288 2 3 tcp 1040 ------- 1 0.0 3.0 15 30
- 0.85392 0 2 tcp 1040 ------- 1 0.0 3.0 29 44
r 0.853952 0 2 tcp 1040 ------- 1 0.0 3.0 16 31
+ 0.853952 2 3 tcp 1040 ------- 1 0.0 3.0 16 31
- 0.853952 2 3 tcp 1040 ------- 1 0.0 3.0 16 31
- 0.855584 0 2 tcp 1040 ------- 1 0.0 3.0 30 45
r 0.855616 0 2 tcp 1040 ------- 1 0.0 3.0 17 32
+ 0.855616 2 3 tcp 1040 ------- 1 0.0 3.0 17 32
- 0.855616 2 3 tcp 1040 ------- 1 0.0 3.0 17 32
r 0.85728 0 2 tcp 1040 ------- 1 0.0 3.0 18 33
+ 0.85728 2 3 tcp 1040 ------- 1 0.0 3.0 18 33
- 0.85728 2 3 tcp 1040 ------- 1 0.0 3.0 18 33
r 0.858944 0 2 tcp 1040 ------- 1 0.0 3.0 19 34
+ 0.858944 2 3 tcp 1040 ------- 1 0.0 3.0 19 34
- 0.858944 2 3 tcp 1040 ------- 1 0.0 3.0 19 34
r 0.860608 0 2 tcp 1040 ------- 1 0.0 3.0 20 35
+ 0.860608 2 3 tcp 1040 ------- 1 0.0 3.0 20 35
- 0.860608 2 3 tcp 1040 ------- 1 0.0 3.0 20 35
r 0.862272 0 2 tcp 1040 ------- 1 0.0 3.0 21 36
+ 0.862272 2 3 tcp 1040 ------- 1 0.0 3.0 21 36
- 0.862272 2 3 tcp 1040 ------- 1 0.0 3.0 21 36
r 0.863936 0 2 tcp 1040 ------- 1 0.0 3.0 22 37
+ 0.863936 2 3 tcp 1040 ------- 1 0.0 3.0 22 37
- 0.863936 2 3 tcp 1040 ------- 1 0.0 3.0 22 37
r 0.8656 0 2 tcp 1040 ------- 1 0.0 3.0 23 38
+ 0.8656 2 3 tcp 1040 ------- 1 0.0 3.0 23 38
- 0.8656 2 3 tcp 1040 ------- 1 0.0 3.0 23 38
r 0.867264 0 2 tcp 1040 ------- 1 0.0 3.0 24 39
+ 0.867264 2 3 tcp 1040 ------- 1 0.0 3.0 24 39
- 0.867264 2 3 tcp 1040 ------- 1 0.0 3.0 24 39
r 0.868928 0 2 tcp 1040 ------- 1 0.0 3.0 25 40
+ 0.868928 2 3 tcp 1040 ------- 1 0.0 3.0 25 40
- 0.868928 2 3 tcp 1040 ------- 1 0.0 3.0 25 40
r 0.870592 0 2 tcp 1040 ------- 1 0.0 3.0 26 41
+ 0.870592 2 3 tcp 1040 ------- 1 0.0 3.0 26 41
- 0.870592 2 3 tcp 1040 ------- 1 0.0 3.0 26 41
r 0.872256 0 2 tcp 1040 ------- 1 0.0 3.0 27 42
+ 0.872256 2 3 tcp 1040 ------- 1 0.0 3.0 27 42
- 0.872256 2 3 tcp 1040 ------- 1 0.0 3.0 27 42
r 0.87392 0 2 tcp 1040 ------- 1 0.0 3.0 28 43
+ 0.87392 2 3 tcp 1040 ------- 1 0.0 3.0 28 43
- 0.87392 2 3 tcp 1040 ------- 1 0.0 3.0 28 43
r 0.873952 2 3 tcp 1040 ------- 1 0.0 3.0 15 30
+ 0.873952 3 2 ack 40 ------- 1 3.0 0.0 15 46
- 0.873952 3 2 ack 40 ------- 1 3.0 0.0 15 46
r 0.875584 0 2 tcp 1040 ------- 1 0.0 3.0 29 44
+ 0.875584 2 3 tcp 1040 ------- 1 0.0 3.0 29 44
- 0.875584 2 3 tcp 1040 ------- 1 0.0 3.0 29 44
r 0.875616 2 3 tcp 1040 ------- 1 0.0 3.0 16 31
+ 0.875616 3 2 ack 40 ------- 1 3.0 0.0 16 47
- 0.875616 3 2 ack 40 ------- 1 3.0 0.0 16 47
r 0.877248 0 2 tcp 1040 ------- 1 0.0 3.0 30 45
+ 0.877248 2 3 tcp 1040 ------- 1 0.0 3.0 30 45
- 0.877248 2 3 tcp 1040 ------- 1 0.0 3.0 30 45
r 0.87728 2 3 tcp 1040 ------- 1 0.0 3.0 17 32
+ 0.87728 3 2 ack 40 ------- 1 3.0 0.0 17 48
- 0.87728 3 2 ack 40 ------- 1 3.0 0.0 17 48
r 0.878944 2 3 tcp 1040 ------- 1 0.0 3.0 18 33
+ 0.878944 3 2 ack 40 ------- 1 3.0 0.0 18 49
- 0.878944 3 2 ack 40 ------- 1 3.0 0.0 18 49
r 0.880608 2 3 tcp 1040 ------- 1 0.0 3.0 19 34
+ 0.880608 3 2 ack 40 ------- 1 3.0 0.0 19 50
- 0.880608 3 2 ack 40 ------- 1 3.0 0.0 19 50
r 0.882272 2 3 tcp 1040 ------- 1 0.0 3.0 20 35
+ 0.882272 3 2 ack 40 ------- 1 3.0 0.0 20 51
- 0.882272 3 2 ack 40 ------- 1 3.0 0.0 20 51
r 0.883936 2 3 tcp 1040 ------- 1 0.0 3.0 21 36
+ 0.883936 3 2 ack 40 ------- 1 3.0 0.0 21 52
- 0.883936 3 2 ack 40 ------- 1 3.0 0.0 21 52
r 0.8856 2 3 tcp 1040 ------- 1 0.0 3.0 22 37
+ 0.8856 3 2 ack 40 ------- 1 3.0 0.0 22 53
- 0.8856 3 2 ack 40 ------- 1 3.0 0.0 22 53
r 0.887264 2 3 tcp 1040 ------- 1 0.0 3.0 23 38
+ 0.887264 3 2 ack 40 ------- 1 3.0 0.0 23 54
- 0.887264 3 2 ack 40 ------- 1 3.0 0.0 23 54
r 0.888928 2 3 tcp 1040 ------- 1 0.0 3.0 24 39
+ 0.888928 3 2 ack 40 ------- 1 3.0 0.0 24 55
- 0.888928 3 2 ack 40 ------- 1 3.0 0.0 24 55
r 0.890592 2 3 tcp 1040 ------- 1 0.0 3.0 25 40
+ 0.890592 3 2 ack 40 ------- 1 3.0 0.0 25 56
- 0.890592 3 2 ack 40 ------- 1 3.0 0.0 25 56
r 0.892256 2 3 tcp 1040 ------- 1 0.0 3.0 26 41
+ 0.892256 3 2 ack 40 ------- 1 3.0 0.0 26 57
- 0.892256 3 2 ack 40 ------- 1 3.0 0.0 26 57
r 0.89392 2 3 tcp 1040 ------- 1 0.0 3.0 27 42
+ 0.89392 3 2 ack 40 ------- 1 3.0 0.0 27 58
- 0.89392 3 2 ack 40 ------- 1 3.0 0.0 27 58
r 0.894016 3 2 ack 40 ------- 1 3.0 0.0 15 46
+ 0.894016 2 0 ack 40 ------- 1 3.0 0.0 15 46
- 0.894016 2 0 ack 40 ------- 1 3.0 0.0 15 46
r 0.895584 2 3 tcp 1040 ------- 1 0.0 3.0 28 43
+ 0.895584 3 2 ack 40 ------- 1 3.0 0.0 28 59
- 0.895584 3 2 ack 40 ------- 1 3.0 0.0 28 59
r 0.89568 3 2 ack 40 ------- 1 3.0 0.0 16 47
+ 0.89568 2 0 ack 40 ------- 1 3.0 0.0 16 47
- 0.89568 2 0 ack 40 ------- 1 3.0 0.0 16 47
r 0.897248 2 3 tcp 1040 ------- 1 0.0 3.0 29 44
+ 0.897248 3 2 ack 40 ------- 1 3.0 0.0 29 60
- 0.897248 3 2 ack 40 ------- 1 3.0 0.0 29 60
r 0.897344 3 2 ack 40 ------- 1 3.0 0.0 17 48
+ 0.897344 2 0 ack 40 ------- 1 3.0 0.0 17 48
- 0.897344 2 0 ack 40 ------- 1 3.0 0.0 17 48
r 0.898912 2 3 tcp 1040 ------- 1 0.0 3.0 30 45
+ 0.898912 3 2 ack 40 ------- 1 3.0 0.0 30 61
- 0.898912 3 2 ack 40 ------- 1 3.0 0.0 30 61
r 0.899008 3 2 ack 40 ------- 1 3.0 0.0 18 49
+ 0.899008 2 0 ack 40 ------- 1 3.0 0.0 18 49
- 0.899008 2 0 ack 40 ------- 1 3.0 0.0 18 49
r 0.900672 3 2 ack 40 ------- 1 3.0 0.0 19 50
+ 0.900672 2 0 ack 40 ------- 1 3.0 0.0 19 50
- 0.900672 2 0 ack 40 ------- 1 3.0 0.0 19 50
r 0.902336 3 2 ack 40 ------- 1 3.0 0.0 20 51
+ 0.902336 2 0 ack 40 ------- 1 3.0 0.0 20 51
- 0.902336 2 0 ack 40 ------- 1 3.0 0.0 20 51
r 0.904 3 2 ack 40 ------- 1 3.0 0.0 21 52
+ 0.904 2 0 ack 40 ------- 1 3.0 0.0 21 52
- 0.904 2 0 ack 40 ------- 1 3.0 0.0 21 52
r 0.905664 3 2 ack 40 ------- 1 3.0 0.0 22 53
+ 0.905664 2 0 ack 40 ------- 1 3.0 0.0 22 53
- 0.905664 2 0 ack 40 ------- 1 3.0 0.0 22 53
r 0.907328 3 2 ack 40 ------- 1 3.0 0.0 23 54
+ 0.907328 2 0 ack 40 ------- 1 3.0 0.0 23 54
- 0.907328 2 0 ack 40 ------- 1 3.0 0.0 23 54
r 0.908992 3 2 ack 40 ------- 1 3.0 0.0 24 55
+ 0.908992 2 0 ack 40 ------- 1 3.0 0.0 24 55
- 0.908992 2 0 ack 40 ------- 1 3.0 0.0 24 55
r 0.910656 3 2 ack 40 ------- 1 3.0 0.0 25 56
+ 0.910656 2 0 ack 40 ------- 1 3.0 0.0 25 56
- 0.910656 2 0 ack 40 ------- 1 3.0 0.0 25 56
r 0.91232 3 2 ack 40 ------- 1 3.0 0.0 26 57
+ 0.91232 2 0 ack 40 ------- 1 3.0 0.0 26 57
- 0.91232 2 0 ack 40 ------- 1 3.0 0.0 26 57
r 0.913984 3 2 ack 40 ------- 1 3.0 0.0 27 58
+ 0.913984 2 0 ack 40 ------- 1 3.0 0.0 27 58
- 0.913984 2 0 ack 40 ------- 1 3.0 0.0 27 58
r 0.91408 2 0 ack 40 ------- 1 3.0 0.0 15 46
+ 0.91408 0 2 tcp 1040 ------- 1 0.0 3.0 31 62
- 0.91408 0 2 tcp 1040 ------- 1 0.0 3.0 31 62
+ 0.91408 0 2 tcp 1040 ------- 1 0.0 3.0 32 63
r 0.915648 3 2 ack 40 ------- 1 3.0 0.0 28 59
+ 0.915648 2 0 ack 40 ------- 1 3.0 0.0 28 59
- 0.915648 2 0 ack 40 ------- 1 3.0 0.0 28 59
r 0.915744 2 0 ack 40 ------- 1 3.0 0.0 16 47
+ 0.915744 0 2 tcp 1040 ------- 1 0.0 3.0 33 64
+ 0.915744 0 2 tcp 1040 ------- 1 0.0 3.0 34 65
- 0.915744 0 2 tcp 1040 ------- 1 0.0 3.0 32 63
r 0.917312 3 2 ack 40 ------- 1 3.0 0.0 29 60
+ 0.917312 2 0 ack 40 ------- 1 3.0 0.0 29 60
- 0.917312 2 0 ack 40 ------- 1 3.0 0.0 29 60
r 0.917408 2 0 ack 40 ------- 1 3.0 0.0 17 48
+ 0.917408 0 2 tcp 1040 ------- 1 0.0 3.0 35 66
+ 0.917408 0 2 tcp 1040 ------- 1 0.0 3.0 36 67
- 0.917408 0 2 tcp 1040 ------- 1 0.0 3.0 33 64
r 0.918976 3 2 ack 40 ------- 1 3.0 0.0 30 61
+ 0.918976 2 0 ack 40 ------- 1 3.0 0.0 30 61
- 0.918976 2 0 ack 40 ------- 1 3.0 0.0 30 61
r 0.919072 2 0 ack 40 ------- 1 3.0 0.0 18 49
+ 0.919072 0 2 tcp 1040 ------- 1 0.0 3.0 37 68
+ 0.919072 0 2 tcp 1040 ------- 1 0.0 3.0 38 69
- 0.919072 0 2 tcp 1040 ------- 1 0.0 3.0 34 65
r 0.920736 2 0 ack 40 ------- 1 3.0 0.0 19 50
+ 0.920736 0 2 tcp 1040 ------- 1 0.0 3.0 39 70
- 0.920736 0 2 tcp 1040 ------- 1 0.0 3.0 35 66
r 0.9224 2 0 ack 40 ------- 1 3.0 0.0 20 51
+ 0.9224 0 2 tcp 1040 ------- 1 0.0 3.0 40 71
- 0.9224 0 2 tcp 1040 ------- 1 0.0 3.0 36 67
r 0.924064 2 0 ack 40 ------- 1 3.0 0.0 21 52
+ 0.924064 0 2 tcp 1040 ------- 1 0.0 3.0 41 72
- 0.924064 0 2 tcp 1040 ------- 1 0.0 3.0 37 68
r 0.925728 2 0 ack 40 ------- 1 3.0 0.0 22 53
+ 0.925728 0 2 tcp 1040 ------- 1 0.0 3.0 42 73
- 0.925728 0 2 tcp 1040 ------- 1 0.0 3.0 38 69
r 0.927392 2 0 ack 40 ------- 1 3.0 0.0 23 54
+ 0.927392 0 2 tcp 1040 ------- 1 0.0 3.0 43 74
- 0.927392 0 2 tcp 1040 ------- 1 0.0 3.0 39 70
r 0.929056 2 0 ack 40 ------- 1 3.0 0.0 24 55
+ 0.929056 0 2 tcp 1040 ------- 1 0.0 3.0 44 75
- 0.929056 0 2 tcp 1040 ------- 1 0.0 3.0 40 71
r 0.93072 2 0 ack 40 ------- 1 3.0 0.0 25 56
+ 0.93072 0 2 tcp 1040 ------- 1 0.0 3.0 45 76
- 0.93072 0 2 tcp 1040 ------- 1 0.0 3.0 41 72
r 0.932384 2 0 ack 40 ------- 1 3.0 0.0 26 57
+ 0.932384 0 2 tcp 1040 ------- 1 0.0 3.0 46 77
- 0.932384 0 2 tcp 1040 ------- 1 0.0 3.0 42 73
r 0.934048 2 0 ack 40 ------- 1 3.0 0.0 27 58
+ 0.934048 0 2 tcp 1040 ------- 1 0.0 3.0 47 78
- 0.934048 0 2 tcp 1040 ------- 1 0.0 3.0 43 74
r 0.935712 2 0 ack 40 ------- 1 3.0 0.0 28 59
+ 0.935712 0 2 tcp 1040 ------- 1 0.0 3.0 48 79
- 0.935712 0 2 tcp 1040 ------- 1 0.0 3.0 44 75
r 0.935744 0 2 tcp 1040 ------- 1 0.0 3.0 31 62
+ 0.935744 2 3 tcp 1040 ------- 1 0.0 3.0 31 62
- 0.935744 2 3 tcp 1040 ------- 1 0.0 3.0 31 62
r 0.937376 2 0 ack 40 ------- 1 3.0 0.0 29 60
+ 0.937376 0 2 tcp 1040 ------- 1 0.0 3.0 49 80
- 0.937376 0 2 tcp 1040 ------- 1 0.0 3.0 45 76
r 0.937408 0 2 tcp 1040 ------- 1 0.0 3.0 32 63
+ 0.937408 2 3 tcp 1040 ------- 1 0.0 3.0 32 63
- 0.937408 2 3 tcp 1040 ------- 1 0.0 3.0 32 63
r 0.93904 2 0 ack 40 ------- 1 3.0 0.0 30 61
+ 0.93904 0 2 tcp 1040 ------- 1 0.0 3.0 50 81
- 0.93904 0 2 tcp 1040 ------- 1 0.0 3.0 46 77
r 0.939072 0 2 tcp 1040 ------- 1 0.0 3.0 33 64
+ 0.939072 2 3 tcp 1040 ------- 1 0.0 3.0 33 64
- 0.939072 2 3 tcp 1040 ------- 1 0.0 3.0 33 64
- 0.940704 0 2 tcp 1040 ------- 1 0.0 3.0 47 78
r 0.940736 0 2 tcp 1040 ------- 1 0.0 3.0 34 65
+ 0.940736 2 3 tcp 1040 ------- 1 0.0 3.0 34 65
- 0.940736 2 3 tcp 1040 ------- 1 0.0 3.0 34 65
- 0.942368 0 2 tcp 1040 ------- 1 0.0 3.0 48 79
r 0.9424 0 2 tcp 1040 ------- 1 0.0 3.0 35 66
+ 0.9424 2 3 tcp 1040 ------- 1 0.0 3.0 35 66
- 0.9424 2 3 tcp 1040 ------- 1 0.0 3.0 35 66
- 0.944032 0 2 tcp 1040 ------- 1 0.0 3.0 49 80
r 0.944064 0 2 tcp 1040 ------- 1 0.0 3.0 36 67
+ 0.944064 2 3 tcp 1040 ------- 1 0.0 3.0 36 67
- 0.944064 2 3 tcp 1040 ------- 1 0.0 3.0 36 67
- 0.945696 0 2 tcp 1040 ------- 1 0.0 3.0 50 81
r 0.945728 0 2 tcp 1040 ------- 1 0.0 3.0 37 68
+ 0.945728 2 3 tcp 1040 ------- 1 0.0 3.0 37 68
- 0.945728 2 3 tcp 1040 ------- 1 0.0 3.0 37 68
r 0.947392 0 2 tcp 1040 ------- 1 0.0 3.0 38 69
+ 0.947392 2 3 tcp 1040 ------- 1 0.0 3.0 38 69
- 0.947392 2 3 tcp 1040 ------- 1 0.0 3.0 38 69
r 0.949056 0 2 tcp 1040 ------- 1 0.0 3.0 39 70
+ 0.949056 2 3 tcp 1040 ------- 1 0.0 3.0 39 70
- 0.949056 2 3 tcp 1040 ------- 1 0.0 3.0 39 70
r 0.95072 0 2 tcp 1040 ------- 1 0.0 3.0 40 71
+ 0.95072 2 3 tcp 1040 ------- 1 0.0 3.0 40 71
- 0.95072 2 3 tcp 1040 ------- 1 0.0 3.0 40 71
r 0.952384 0 2 tcp 1040 ------- 1 0.0 3.0 41 72
+ 0.952384 2 3 tcp 1040 ------- 1 0.0 3.0 41 72
- 0.952384 2 3 tcp 1040 ------- 1 0.0 3.0 41 72
r 0.954048 0 2 tcp 1040 ------- 1 0.0 3.0 42 73
+ 0.954048 2 3 tcp 1040 ------- 1 0.0 3.0 42 73
- 0.954048 2 3 tcp 1040 ------- 1 0.0 3.0 42 73
r 0.955712 0 2 tcp 1040 ------- 1 0.0 3.0 43 74
+ 0.955712 2 3 tcp 1040 ------- 1 0.0 3.0 43 74
- 0.955712 2 3 tcp 1040 ------- 1 0.0 3.0 43 74
r 0.957376 0 2 tcp 1040 ------- 1 0.0 3.0 44 75
+ 0.957376 2 3 tcp 1040 ------- 1 0.0 3.0 44 75
- 0.957376 2 3 tcp 1040 ------- 1 0.0 3.0 44 75
r 0.957408 2 3 tcp 1040 ------- 1 0.0 3.0 31 62
+ 0.957408 3 2 ack 40 ------- 1 3.0 0.0 31 82
- 0.957408 3 2 ack 40 ------- 1 3.0 0.0 31 82
r 0.95904 0 2 tcp 1040 ------- 1 0.0 3.0 45 76
+ 0.95904 2 3 tcp 1040 ------- 1 0.0 3.0 45 76
- 0.95904 2 3 tcp 1040 ------- 1 0.0 3.0 45 76
r 0.959072 2 3 tcp 1040 ------- 1 0.0 3.0 32 63
+ 0.959072 3 2 ack 40 ------- 1 3.0 0.0 32 83
- 0.959072 3 2 ack 40 ------- 1 3.0 0.0 32 83
r 0.960704 0 2 tcp 1040 ------- 1 0.0 3.0 46 77
+ 0.960704 2 3 tcp 1040 ------- 1 0.0 3.0 46 77
- 0.960704 2 3 tcp 1040 ------- 1 0.0 3.0 46 77
r 0.960736 2 3 tcp 1040 ------- 1 0.0 3.0 33 64
+ 0.960736 3 2 ack 40 ------- 1 3.0 0.0 33 84
- 0.960736 3 2 ack 40 ------- 1 3.0 0.0 33 84
r 0.962368 0 2 tcp 1040 ------- 1 0.0 3.0 47 78
+ 0.962368 2 3 tcp 1040 ------- 1 0.0 3.0 47 78
- 0.962368 2 3 tcp 1040 ------- 1 0.0 3.0 47 78
r 0.9624 2 3 tcp 1040 ------- 1 0.0 3.0 34 65
+ 0.9624 3 2 ack 40 ------- 1 3.0 0.0 34 85
- 0.9624 3 2 ack 40 ------- 1 3.0 0.0 34 85
r 0.964032 0 2 tcp 1040 ------- 1 0.0 3.0 48 79
+ 0.964032 2 3 tcp 1040 ------- 1 0.0 3.0 48 79
- 0.964032 2 3 tcp 1040 ------- 1 0.0 3.0 48 79
r 0.964064 2 3 tcp 1040 ------- 1 0.0 3.0 35 66
+ 0.964064 3 2 ack 40 ------- 1 3.0 0.0 35 86
- 0.964064 3 2 ack 40 ------- 1 3.0 0.0 35 86
r 0.965696 0 2 tcp 1040 ------- 1 0.0 3.0 49 80
+ 0.965696 2 3 tcp 1040 ------- 1 0.0 3.0 49 80
- 0.965696 2 3 tcp 1040 ------- 1 0.0 3.0 49 80
r 0.965728 2 3 tcp 1040 ------- 1 0.0 3.0 36 67
+ 0.965728 3 2 ack 40 ------- 1 3.0 0.0 36 87
- 0.965728 3 2 ack 40 ------- 1 3.0 0.0 36 87
r 0.96736 0 2 tcp 1040 ------- 1 0.0 3.0 50 81
+ 0.96736 2 3 tcp 1040 ------- 1 0.0 3.0 50 81
- 0.96736 2 3 tcp 1040 ------- 1 0.0 3.0 50 81
r 0.967392 2 3 tcp 1040 ------- 1 0.0 3.0 37 68
+ 0.967392 3 2 ack 40 ------- 1 3.0 0.0 37 88
- 0.967392 3 2 ack 40 ------- 1 3.0 0.0 37 88
r 0.969056 2 3 tcp 1040 ------- 1 0.0 3.0 38 69
+ 0.969056 3 2 ack 40 ------- 1 3.0 0.0 38 89
- 0.969056 3 2 ack 40 ------- 1 3.0 0.0 38 89
r 0.97072 2 3 tcp 1040 ------- 1 0.0 3.0 39 70
+ 0.97072 3 2 ack 40 ------- 1 3.0 0.0 39 90
- 0.97072 3 2 ack 40 ------- 1 3.0 0.0 39 90
r 0.972384 2 3 tcp 1040 ------- 1 0.0 3.0 40 71
+ 0.972384 3 2 ack 40 ------- 1 3.0 0.0 40 91
- 0.972384 3 2 ack 40 ------- 1 3.0 0.0 40 91
r 0.974048 2 3 tcp 1040 ------- 1 0.0 3.0 41 72
+ 0.974048 3 2 ack 40 ------- 1 3.0 0.0 41 92
- 0.974048 3 2 ack 40 ------- 1 3.0 0.0 41 92
r 0.975712 2 3 tcp 1040 ------- 1 0.0 3.0 42 73
+ 0.975712 3 2 ack 40 ------- 1 3.0 0.0 42 93
- 0.975712 3 2 ack 40 ------- 1 3.0 0.0 42 93
r 0.977376 2 3 tcp 1040 ------- 1 0.0 3.0 43 74
+ 0.977376 3 2 ack 40 ------- 1 3.0 0.0 43 94
- 0.977376 3 2 ack 40 ------- 1 3.0 0.0 43 94
r 0.977472 3 2 ack 40 ------- 1 3.0 0.0 31 82
+ 0.977472 2 0 ack 40 ------- 1 3.0 0.0 31 82
- 0.977472 2 0 ack 40 ------- 1 3.0 0.0 31 82
r 0.97904 2 3 tcp 1040 ------- 1 0.0 3.0 44 75
+ 0.97904 3 2 ack 40 ------- 1 3.0 0.0 44 95
- 0.97904 3 2 ack 40 ------- 1 3.0 0.0 44 95
r 0.979136 3 2 ack 40 ------- 1 3.0 0.0 32 83
+ 0.979136 2 0 ack 40 ------- 1 3.0 0.0 32 83
- 0.979136 2 0 ack 40 ------- 1 3.0 0.0 32 83
r 0.980704 2 3 tcp 1040 ------- 1 0.0 3.0 45 76
+ 0.980704 3 2 ack 40 ------- 1 3.0 0.0 45 96
- 0.980704 3 2 ack 40 ------- 1 3.0 0.0 45 96
r 0.9808 3 2 ack 40 ------- 1 3.0 0.0 33 84
+ 0.9808 2 0 ack 40 ------- 1 3.0 0.0 33 84
- 0.9808 2 0 ack 40 ------- 1 3.0 0.0 33 84
r 0.982368 2 3 tcp 1040 ------- 1 0.0 3.0 46 77
+ 0.982368 3 2 ack 40 ------- 1 3.0 0.0 46 97
- 0.982368 3 2 ack 40 ------- 1 3.0 0.0 46 97
r 0.982464 3 2 ack 40 ------- 1 3.0 0.0 34 85
+ 0.982464 2 0 ack 40 ------- 1 3.0 0.0 34 85
- 0.982464 2 0 ack 40 ------- 1 3.0 0.0 34 85
r 0.984032 2 3 tcp 1040 ------- 1 0.0 3.0 47 78
+ 0.984032 3 2 ack 40 ------- 1 3.0 0.0 47 98
- 0.984032 3 2 ack 40 ------- 1 3.0 0.0 47 98
r 0.984128 3 2 ack 40 ------- 1 3.0 0.0 35 86
+ 0.984128 2 0 ack 40 ------- 1 3.0 0.0 35 86
- 0.984128 2 0 ack 40 ------- 1 3.0 0.0 35 86
r 0.985696 2 3 tcp 1040 ------- 1 0.0 3.0 48 79
+ 0.985696 3 2 ack 40 ------- 1 3.0 0.0 48 99
- 0.985696 3 2 ack 40 ------- 1 3.0 0.0 48 99
r 0.985792 3 2 ack 40 ------- 1 3.0 0.0 36 87
+ 0.985792 2 0 ack 40 ------- 1 3.0 0.0 36 87
- 0.985792 2 0 ack 40 ------- 1 3.0 0.0 36 87
r 0.98736 2 3 tcp 1040 ------- 1 0.0 3.0 49 80
+ 0.98736 3 2 ack 40 ------- 1 3.0 0.0 49 100
- 0.98736 3 2 ack 40 ------- 1 3.0 0.0 49 100
r 0.987456 3 2 ack 40 ------- 1 3.0 0.0 37 88
+ 0.987456 2 0 ack 40 ------- 1 3.0 0.0 37 88
- 0.987456 2 0 ack 40 ------- 1 3.0 0.0 37 88
r 0.989024 2 3 tcp 1040 ------- 1 0.0 3.0 50 81
+ 0.989024 3 2 ack 40 ------- 1 3.0 0.0 50 101
- 0.989024 3 2 ack 40 ------- 1 3.0 0.0 50 101
r 0.98912 3 2 ack 40 ------- 1 3.0 0.0 38 89
+ 0.98912 2 0 ack 40 ------- 1 3.0 0.0 38 89
- 0.98912 2 0 ack 40 ------- 1 3.0 0.0 38 89
r 0.990784 3 2 ack 40 ------- 1 3.0 0.0 39 90
+ 0.990784 2 0 ack 40 ------- 1 3.0 0.0 39 90
- 0.990784 2 0 ack 40 ------- 1 3.0 0.0 39 90
r 0.992448 3 2 ack 40 ------- 1 3.0 0.0 40 91
+ 0.992448 2 0 ack 40 ------- 1 3.0 0.0 40 91
- 0.992448 2 0 ack 40 ------- 1 3.0 0.0 40 91
r 0.994112 3 2 ack 40 ------- 1 3.0 0.0 41 92
+ 0.994112 2 0 ack 40 ------- 1 3.0 0.0 41 92
- 0.994112 2 0 ack 40 ------- 1 3.0 0.0 41 92
r 0.995776 3 2 ack 40 ------- 1 3.0 0.0 42 93
+ 0.995776 2 0 ack 40 ------- 1 3.0 0.0 42 93
- 0.995776 2 0 ack 40 ------- 1 3.0 0.0 42 93
r 0.99744 3 2 ack 40 ------- 1 3.0 0.0 43 94
+ 0.99744 2 0 ack 40 ------- 1 3.0 0.0 43 94
- 0.99744 2 0 ack 40 ------- 1 3.0 0.0 43 94
r 0.997536 2 0 ack 40 ------- 1 3.0 0.0 31 82
+ 0.997536 0 2 tcp 1040 ------- 1 0.0 3.0 51 102
- 0.997536 0 2 tcp 1040 ------- 1 0.0 3.0 51 102
r 0.999104 3 2 ack 40 ------- 1 3.0 0.0 44 95
+ 0.999104 2 0 ack 40 ------- 1 3.0 0.0 44 95
- 0.999104 2 0 ack 40 ------- 1 3.0 0.0 44 95
r 0.9992 2 0 ack 40 ------- 1 3.0 0.0 32 83
+ 0.9992 0 2 tcp 1040 ------- 1 0.0 3.0 52 103
- 0.9992 0 2 tcp 1040 ------- 1 0.0 3.0 52 103
r 1.000768 3 2 ack 40 ------- 1 3.0 0.0 45 96
+ 1.000768 2 0 ack 40 ------- 1 3.0 0.0 45 96
- 1.000768 2 0 ack 40 ------- 1 3.0 0.0 45 96
r 1.000864 2 0 ack 40 ------- 1 3.0 0.0 33 84
+ 1.000864 0 2 tcp 1040 ------- 1 0.0 3.0 53 104
- 1.000864 0 2 tcp 1040 ------- 1 0.0 3.0 53 104
r 1.002432 3 2 ack 40 ------- 1 3.0 0.0 46 97
+ 1.002432 2 0 ack 40 ------- 1 3.0 0.0 46 97
- 1.002432 2 0 ack 40 ------- 1 3.0 0.0 46 97
r 1.002528 2 0 ack 40 ------- 1 3.0 0.0 34 85
+ 1.002528 0 2 tcp 1040 ------- 1 0.0 3.0 54 105
- 1.002528 0 2 tcp 1040 ------- 1 0.0 3.0 54 105
r 1.004096 3 2 ack 40 ------- 1 3.0 0.0 47 98
+ 1.004096 2 0 ack 40 ------- 1 3.0 0.0 47 98
- 1.004096 2 0 ack 40 ------- 1 3.0 0.0 47 98
r 1.004192 2 0 ack 40 ------- 1 3.0 0.0 35 86
+ 1.004192 0 2 tcp 1040 ------- 1 0.0 3.0 55 106
- 1.004192 0 2 tcp 1040 ------- 1 0.0 3.0 55 106
r 1.00576 3 2 ack 40 ------- 1 3.0 0.0 48 99
+ 1.00576 2 0 ack 40 ------- 1 3.0 0.0 48 99
- 1.00576 2 0 ack 40 ------- 1 3.0 0.0 48 99
r 1.005856 2 0 ack 40 ------- 1 3.0 0.0 36 87
+ 1.005856 0 2 tcp 1040 ------- 1 0.0 3.0 56 107
- 1.005856 0 2 tcp 1040 ------- 1 0.0 3.0 56 107
r 1.007424 3 2 ack 40 ------- 1 3.0 0.0 49 100
+ 1.007424 2 0 ack 40 ------- 1 3.0 0.0 49 100
- 1.007424 2 0 ack 40 ------- 1 3.0 0.0 49 100
r 1.00752 2 0 ack 40 ------- 1 3.0 0.0 37 88
+ 1.00752 0 2 tcp 1040 ------- 1 0.0 3.0 57 108
- 1.00752 0 2 tcp 1040 ------- 1 0.0 3.0 57 108
r 1.009088 3 2 ack 40 ------- 1 3.0 0.0 50 101
+ 1.009088 2 0 ack 40 ------- 1 3.0 0.0 50 101
- 1.009088 2 0 ack 40 ------- 1 3.0 0.0 50 101
r 1.009184 2 0 ack 40 ------- 1 3.0 0.0 38 89
+ 1.009184 0 2 tcp 1040 ------- 1 0.0 3.0 58 109
- 1.009184 0 2 tcp 1040 ------- 1 0.0 3.0 58 109
r 1.010848 2 0 ack 40 ------- 1 3.0 0.0 39 90
+ 1.010848 0 2 tcp 1040 ------- 1 0.0 3.0 59 110
- 1.010848 0 2 tcp 1040 ------- 1 0.0 3.0 59 110
r 1.012512 2 0 ack 40 ------- 1 3.0 0.0 40 91
+ 1.012512 0 2 tcp 1040 ------- 1 0.0 3.0 60 111
- 1.012512 0 2 tcp 1040 ------- 1 0.0 3.0 60 111
r 1.014176 2 0 ack 40 ------- 1 3.0 0.0 41 92
+ 1.014176 0 2 tcp 1040 ------- 1 0.0 3.0 61 112
- 1.014176 0 2 tcp 1040 ------- 1 0.0 3.0 61 112
r 1.01584 2 0 ack 40 ------- 1 3.0 0.0 42 93
+ 1.01584 0 2 tcp 1040 ------- 1 0.0 3.0 62 113
- 1.01584 0 2 tcp 1040 ------- 1 0.0 3.0 62 113
r 1.017504 2 0 ack 40 ------- 1 3.0 0.0 43 94
+ 1.017504 0 2 tcp 1040 ------- 1 0.0 3.0 63 114
- 1.017504 0 2 tcp 1040 ------- 1 0.0 3.0 63 114
r 1.019168 2 0 ack 40 ------- 1 3.0 0.0 44 95
+ 1.019168 0 2 tcp 1040 ------- 1 0.0 3.0 64 115
- 1.019168 0 2 tcp 1040 ------- 1 0.0 3.0 64 115
r 1.0192 0 2 tcp 1040 ------- 1 0.0 3.0 51 102
+ 1.0192 2 3 tcp 1040 ------- 1 0.0 3.0 51 102
- 1.0192 2 3 tcp 1040 ------- 1 0.0 3.0 51 102
r 1.020832 2 0 ack 40 ------- 1 3.0 0.0 45 96
+ 1.020832 0 2 tcp 1040 ------- 1 0.0 3.0 65 116
- 1.020832 0 2 tcp 1040 ------- 1 0.0 3.0 65 116
r 1.020864 0 2 tcp 1040 ------- 1 0.0 3.0 52 103
+ 1.020864 2 3 tcp 1040 ------- 1 0.0 3.0 52 103
- 1.020864 2 3 tcp 1040 ------- 1 0.0 3.0 52 103
r 1.022496 2 0 ack 40 ------- 1 3.0 0.0 46 97